# vtk DataFile Version 3.0
FEM
ASCII
DATASET UNSTRUCTURED_GRID
POINTS 1681 double
0.00000000 0.00000000 0
0.02500000 0.00000000 0
0.05000000 0.00000000 0
0.07500000 0.00000000 0
0.10000000 0.00000000 0
0.12500000 0.00000000 0
0.15000000 0.00000000 0
0.17500000 0.00000000 0
0.20000000 0.00000000 0
0.22500000 0.00000000 0
0.25000000 0.00000000 0
0.27500000 0.00000000 0
0.30000000 0.00000000 0
0.32500000 0.00000000 0
0.35000000 0.00000000 0
0.37500000 0.00000000 0
0.40000000 0.00000000 0
0.42500000 0.00000000 0
0.45000000 0.00000000 0
0.47500000 0.00000000 0
0.50000000 0.00000000 0
0.52500000 0.00000000 0
0.55000000 0.00000000 0
0.57500000 0.00000000 0
0.60000000 0.00000000 0
0.62500000 0.00000000 0
0.65000000 0.00000000 0
0.67500000 0.00000000 0
0.70000000 0.00000000 0
0.72500000 0.00000000 0
0.75000000 0.00000000 0
0.77500000 0.00000000 0
0.80000000 0.00000000 0
0.82500000 0.00000000 0
0.85000000 0.00000000 0
0.87500000 0.00000000 0
0.90000000 0.00000000 0
0.92500000 0.00000000 0
0.95000000 0.00000000 0
0.97500000 0.00000000 0
1.00000000 0.00000000 0
0.00000000 0.02500000 0
0.02500000 0.02500000 0
0.05000000 0.02500000 0
0.07500000 0.02500000 0
0.10000000 0.02500000 0
0.12500000 0.02500000 0
0.15000000 0.02500000 0
0.17500000 0.02500000 0
0.20000000 0.02500000 0
0.22500000 0.02500000 0
0.25000000 0.02500000 0
0.27500000 0.02500000 0
0.30000000 0.02500000 0
0.32500000 0.02500000 0
0.35000000 0.02500000 0
0.37500000 0.02500000 0
0.40000000 0.02500000 0
0.42500000 0.02500000 0
0.45000000 0.02500000 0
0.47500000 0.02500000 0
0.50000000 0.02500000 0
0.52500000 0.02500000 0
0.55000000 0.02500000 0
0.57500000 0.02500000 0
0.60000000 0.02500000 0
0.62500000 0.02500000 0
0.65000000 0.02500000 0
0.67500000 0.02500000 0
0.70000000 0.02500000 0
0.72500000 0.02500000 0
0.75000000 0.02500000 0
0.77500000 0.02500000 0
0.80000000 0.02500000 0
0.82500000 0.02500000 0
0.85000000 0.02500000 0
0.87500000 0.02500000 0
0.90000000 0.02500000 0
0.92500000 0.02500000 0
0.95000000 0.02500000 0
0.97500000 0.02500000 0
1.00000000 0.02500000 0
0.00000000 0.05000000 0
0.02500000 0.05000000 0
0.05000000 0.05000000 0
0.07500000 0.05000000 0
0.10000000 0.05000000 0
0.12500000 0.05000000 0
0.15000000 0.05000000 0
0.17500000 0.05000000 0
0.20000000 0.05000000 0
0.22500000 0.05000000 0
0.25000000 0.05000000 0
0.27500000 0.05000000 0
0.30000000 0.05000000 0
0.32500000 0.05000000 0
0.35000000 0.05000000 0
0.37500000 0.05000000 0
0.40000000 0.05000000 0
0.42500000 0.05000000 0
0.45000000 0.05000000 0
0.47500000 0.05000000 0
0.50000000 0.05000000 0
0.52500000 0.05000000 0
0.55000000 0.05000000 0
0.57500000 0.05000000 0
0.60000000 0.05000000 0
0.62500000 0.05000000 0
0.65000000 0.05000000 0
0.67500000 0.05000000 0
0.70000000 0.05000000 0
0.72500000 0.05000000 0
0.75000000 0.05000000 0
0.77500000 0.05000000 0
0.80000000 0.05000000 0
0.82500000 0.05000000 0
0.85000000 0.05000000 0
0.87500000 0.05000000 0
0.90000000 0.05000000 0
0.92500000 0.05000000 0
0.95000000 0.05000000 0
0.97500000 0.05000000 0
1.00000000 0.05000000 0
0.00000000 0.07500000 0
0.02500000 0.07500000 0
0.05000000 0.07500000 0
0.07500000 0.07500000 0
0.10000000 0.07500000 0
0.12500000 0.07500000 0
0.15000000 0.07500000 0
0.17500000 0.07500000 0
0.20000000 0.07500000 0
0.22500000 0.07500000 0
0.25000000 0.07500000 0
0.27500000 0.07500000 0
0.30000000 0.07500000 0
0.32500000 0.07500000 0
0.35000000 0.07500000 0
0.37500000 0.07500000 0
0.40000000 0.07500000 0
0.42500000 0.07500000 0
0.45000000 0.07500000 0
0.47500000 0.07500000 0
0.50000000 0.07500000 0
0.52500000 0.07500000 0
0.55000000 0.07500000 0
0.57500000 0.07500000 0
0.60000000 0.07500000 0
0.62500000 0.07500000 0
0.65000000 0.07500000 0
0.67500000 0.07500000 0
0.70000000 0.07500000 0
0.72500000 0.07500000 0
0.75000000 0.07500000 0
0.77500000 0.07500000 0
0.80000000 0.07500000 0
0.82500000 0.07500000 0
0.85000000 0.07500000 0
0.87500000 0.07500000 0
0.90000000 0.07500000 0
0.92500000 0.07500000 0
0.95000000 0.07500000 0
0.97500000 0.07500000 0
1.00000000 0.07500000 0
0.00000000 0.10000000 0
0.02500000 0.10000000 0
0.05000000 0.10000000 0
0.07500000 0.10000000 0
0.10000000 0.10000000 0
0.12500000 0.10000000 0
0.15000000 0.10000000 0
0.17500000 0.10000000 0
0.20000000 0.10000000 0
0.22500000 0.10000000 0
0.25000000 0.10000000 0
0.27500000 0.10000000 0
0.30000000 0.10000000 0
0.32500000 0.10000000 0
0.35000000 0.10000000 0
0.37500000 0.10000000 0
0.40000000 0.10000000 0
0.42500000 0.10000000 0
0.45000000 0.10000000 0
0.47500000 0.10000000 0
0.50000000 0.10000000 0
0.52500000 0.10000000 0
0.55000000 0.10000000 0
0.57500000 0.10000000 0
0.60000000 0.10000000 0
0.62500000 0.10000000 0
0.65000000 0.10000000 0
0.67500000 0.10000000 0
0.70000000 0.10000000 0
0.72500000 0.10000000 0
0.75000000 0.10000000 0
0.77500000 0.10000000 0
0.80000000 0.10000000 0
0.82500000 0.10000000 0
0.85000000 0.10000000 0
0.87500000 0.10000000 0
0.90000000 0.10000000 0
0.92500000 0.10000000 0
0.95000000 0.10000000 0
0.97500000 0.10000000 0
1.00000000 0.10000000 0
0.00000000 0.12500000 0
0.02500000 0.12500000 0
0.05000000 0.12500000 0
0.07500000 0.12500000 0
0.10000000 0.12500000 0
0.12500000 0.12500000 0
0.15000000 0.12500000 0
0.17500000 0.12500000 0
0.20000000 0.12500000 0
0.22500000 0.12500000 0
0.25000000 0.12500000 0
0.27500000 0.12500000 0
0.30000000 0.12500000 0
0.32500000 0.12500000 0
0.35000000 0.12500000 0
0.37500000 0.12500000 0
0.40000000 0.12500000 0
0.42500000 0.12500000 0
0.45000000 0.12500000 0
0.47500000 0.12500000 0
0.50000000 0.12500000 0
0.52500000 0.12500000 0
0.55000000 0.12500000 0
0.57500000 0.12500000 0
0.60000000 0.12500000 0
0.62500000 0.12500000 0
0.65000000 0.12500000 0
0.67500000 0.12500000 0
0.70000000 0.12500000 0
0.72500000 0.12500000 0
0.75000000 0.12500000 0
0.77500000 0.12500000 0
0.80000000 0.12500000 0
0.82500000 0.12500000 0
0.85000000 0.12500000 0
0.87500000 0.12500000 0
0.90000000 0.12500000 0
0.92500000 0.12500000 0
0.95000000 0.12500000 0
0.97500000 0.12500000 0
1.00000000 0.12500000 0
0.00000000 0.15000000 0
0.02500000 0.15000000 0
0.05000000 0.15000000 0
0.07500000 0.15000000 0
0.10000000 0.15000000 0
0.12500000 0.15000000 0
0.15000000 0.15000000 0
0.17500000 0.15000000 0
0.20000000 0.15000000 0
0.22500000 0.15000000 0
0.25000000 0.15000000 0
0.27500000 0.15000000 0
0.30000000 0.15000000 0
0.32500000 0.15000000 0
0.35000000 0.15000000 0
0.37500000 0.15000000 0
0.40000000 0.15000000 0
0.42500000 0.15000000 0
0.45000000 0.15000000 0
0.47500000 0.15000000 0
0.50000000 0.15000000 0
0.52500000 0.15000000 0
0.55000000 0.15000000 0
0.57500000 0.15000000 0
0.60000000 0.15000000 0
0.62500000 0.15000000 0
0.65000000 0.15000000 0
0.67500000 0.15000000 0
0.70000000 0.15000000 0
0.72500000 0.15000000 0
0.75000000 0.15000000 0
0.77500000 0.15000000 0
0.80000000 0.15000000 0
0.82500000 0.15000000 0
0.85000000 0.15000000 0
0.87500000 0.15000000 0
0.90000000 0.15000000 0
0.92500000 0.15000000 0
0.95000000 0.15000000 0
0.97500000 0.15000000 0
1.00000000 0.15000000 0
0.00000000 0.17500000 0
0.02500000 0.17500000 0
0.05000000 0.17500000 0
0.07500000 0.17500000 0
0.10000000 0.17500000 0
0.12500000 0.17500000 0
0.15000000 0.17500000 0
0.17500000 0.17500000 0
0.20000000 0.17500000 0
0.22500000 0.17500000 0
0.25000000 0.17500000 0
0.27500000 0.17500000 0
0.30000000 0.17500000 0
0.32500000 0.17500000 0
0.35000000 0.17500000 0
0.37500000 0.17500000 0
0.40000000 0.17500000 0
0.42500000 0.17500000 0
0.45000000 0.17500000 0
0.47500000 0.17500000 0
0.50000000 0.17500000 0
0.52500000 0.17500000 0
0.55000000 0.17500000 0
0.57500000 0.17500000 0
0.60000000 0.17500000 0
0.62500000 0.17500000 0
0.65000000 0.17500000 0
0.67500000 0.17500000 0
0.70000000 0.17500000 0
0.72500000 0.17500000 0
0.75000000 0.17500000 0
0.77500000 0.17500000 0
0.80000000 0.17500000 0
0.82500000 0.17500000 0
0.85000000 0.17500000 0
0.87500000 0.17500000 0
0.90000000 0.17500000 0
0.92500000 0.17500000 0
0.95000000 0.17500000 0
0.97500000 0.17500000 0
1.00000000 0.17500000 0
0.00000000 0.20000000 0
0.02500000 0.20000000 0
0.05000000 0.20000000 0
0.07500000 0.20000000 0
0.10000000 0.20000000 0
0.12500000 0.20000000 0
0.15000000 0.20000000 0
0.17500000 0.20000000 0
0.20000000 0.20000000 0
0.22500000 0.20000000 0
0.25000000 0.20000000 0
0.27500000 0.20000000 0
0.30000000 0.20000000 0
0.32500000 0.20000000 0
0.35000000 0.20000000 0
0.37500000 0.20000000 0
0.40000000 0.20000000 0
0.42500000 0.20000000 0
0.45000000 0.20000000 0
0.47500000 0.20000000 0
0.50000000 0.20000000 0
0.52500000 0.20000000 0
0.55000000 0.20000000 0
0.57500000 0.20000000 0
0.60000000 0.20000000 0
0.62500000 0.20000000 0
0.65000000 0.20000000 0
0.67500000 0.20000000 0
0.70000000 0.20000000 0
0.72500000 0.20000000 0
0.75000000 0.20000000 0
0.77500000 0.20000000 0
0.80000000 0.20000000 0
0.82500000 0.20000000 0
0.85000000 0.20000000 0
0.87500000 0.20000000 0
0.90000000 0.20000000 0
0.92500000 0.20000000 0
0.95000000 0.20000000 0
0.97500000 0.20000000 0
1.00000000 0.20000000 0
0.00000000 0.22500000 0
0.02500000 0.22500000 0
0.05000000 0.22500000 0
0.07500000 0.22500000 0
0.10000000 0.22500000 0
0.12500000 0.22500000 0
0.15000000 0.22500000 0
0.17500000 0.22500000 0
0.20000000 0.22500000 0
0.22500000 0.22500000 0
0.25000000 0.22500000 0
0.27500000 0.22500000 0
0.30000000 0.22500000 0
0.32500000 0.22500000 0
0.35000000 0.22500000 0
0.37500000 0.22500000 0
0.40000000 0.22500000 0
0.42500000 0.22500000 0
0.45000000 0.22500000 0
0.47500000 0.22500000 0
0.50000000 0.22500000 0
0.52500000 0.22500000 0
0.55000000 0.22500000 0
0.57500000 0.22500000 0
0.60000000 0.22500000 0
0.62500000 0.22500000 0
0.65000000 0.22500000 0
0.67500000 0.22500000 0
0.70000000 0.22500000 0
0.72500000 0.22500000 0
0.75000000 0.22500000 0
0.77500000 0.22500000 0
0.80000000 0.22500000 0
0.82500000 0.22500000 0
0.85000000 0.22500000 0
0.87500000 0.22500000 0
0.90000000 0.22500000 0
0.92500000 0.22500000 0
0.95000000 0.22500000 0
0.97500000 0.22500000 0
1.00000000 0.22500000 0
0.00000000 0.25000000 0
0.02500000 0.25000000 0
0.05000000 0.25000000 0
[...]
POINT_DATA 1681
SCALARS u double 1
LOOKUP_TABLE default
2.00000000
2.12467473
2.24740396
2.36627253
2.47942554
2.58509727
2.68163876
2.76754350
2.84147098
2.90226759
2.94898462
2.98089306
2.99749499
2.99853134
2.98398595
2.95408578
2.90929743
2.85031979
2.77807320
2.69368503
2.59847214
2.49392030
2.38166099
2.26344599
2.14112001
2.01659189
1.89180487
1.76870619
1.64921677
1.53520121
1.42843868
1.33059517
1.24319750
1.16760949
1.10501064
1.05637781
1.02246988
1.00381599
1.00070721
1.01319206
1.06929427
2.12467473
2.24926243
2.36789615
2.48041712
2.58541884
2.68134673
2.76672006
2.84020332
2.90064100
2.94708006
2.97878634
2.99525645
2.99622576
2.98167247
2.95181791
2.90712293
2.84828069
2.77620574
2.69201969
2.59703361
2.49272759
2.38072752
2.26277975
2.14072377
2.01646347
1.89193746
1.76908877
1.64983456
1.53603623
1.42947044
1.33180153
1.24455578
1.16909813
1.10661188
1.05808244
1.02428712
1.00579622
1.00300168
1.01622777
1.04612614
1.09515040
2.24740396
2.36789606
2.48087164
2.58577253
2.68139114
2.76639452
2.83951294
2.89962095
2.94577911
2.97725874
2.99355775
2.99441043
2.97979260
2.94992228
2.90525653
2.84648429
2.77451563
2.69046747
2.59564613
2.49152682
2.37973060
2.26199899
2.14016677
2.01613330
1.89183280
1.76920422
1.65016089
1.53656076
1.43017740
1.33267245
1.24556993
1.17023282
1.10784249
1.05938164
1.02562151
1.00711483
1.00419711
1.01699957
1.04547261
1.08936888
1.14782589
2.36627253
2.48041679
2.58577216
2.68144970
2.76631265
2.83920258
2.89905571
2.94496654
2.97622491
2.99233850
2.99304631
2.97832570
2.94839440
2.90370783
2.84495250
2.77303544
2.68907012
2.59435909
2.49037363
2.37873073
2.26116777
2.13951541
2.01566890
1.89155852
1.76911933
1.65026104
1.53683811
1.43062089
1.33326803
1.24630067
1.17107899
1.10878128
1.06038623
1.02665863
1.00813913
1.00513822
1.01773425
1.04577273
1.08885505
1.14628085
1.21686948
2.47942554
2.58541811
2.68139008
2.76631179
2.83911804
2.89881203
2.94453256
2.97559755
2.99153196
2.99208506
2.97723999
2.94721722
2.90247299
2.84369324
2.77178349
2.68785503
2.59320775
2.48930991
2.37777524
2.26033771
2.13882446
2.01512719
1.89117263
1.76889236
1.65019269
1.53692482
1.43085596
1.33364176
1.24680048
1.17168942
1.10948384
1.06115895
1.02747498
1.00896584
1.00593141
1.01843305
1.04629167
1.08908524
1.14614026
1.21650912
1.29894278
2.58509727
2.68134541
2.76639239
2.83920031
2.89881043
2.94439643
2.97530353
2.99107632
2.99147747
2.97649885
2.94636628
2.90153893
2.84270394
2.77076679
2.68683784
2.59221538
2.48836560
2.37689976
2.25954914
2.13813798
2.01455500
1.89072384
1.76857303
1.65000582
1.53687042
1.43093114
1.33384077
1.24711486
1.17210799
1.10999273
1.06174137
1.02811087
1.00963115
1.00659692
1.01906288
1.04684215
1.08950710
1.14639119
1.21659068
1.29896747
1.39216560
2.68163876
2.76671793
2.83950931
2.89905140
2.94452853
2.97530090
2.99092754
2.99118306
2.97606833
2.94581554
2.90088804
2.84197542
2.76998430
2.68602516
2.59139563
2.48756066
2.37612983
2.25883240
2.13749033
2.01398988
1.89025212
1.76820295
1.64974293
1.53671760
1.43088863
1.33390626
1.24728349
1.17237246
1.11034329
1.06216583
1.02859452
1.01015656
1.00714366
1.01960726
1.04735730
1.08996419
1.14676371
1.21686435
1.29915747
1.39233219
1.49490112
2.76754350
2.84020015
2.89961536
2.94495949
2.97559019
2.99106994
2.99117910
2.97592448
2.94554338
2.90050310
2.84149600
2.76943036
2.68541745
2.59075493
2.48690717
2.37548272
2.25820938
2.13690741
2.01346113
1.88978950
1.76781618
1.64943944
1.53650251
1.43076472
1.33387398
1.24734103
1.17251579
1.11056621
1.06246001
1.02894955
1.01055995
1.00758083
1.02006164
1.04781057
1.09039703
1.14715756
1.21720493
1.29944046
1.39256981
1.49512358
1.60548436
2.84147098
2.90063653
2.94577106
2.97621439
2.99152029
2.99146614
2.97605897
2.94553776
2.90037183
2.84125536
2.76909803
2.68501194
2.59029503
2.48641147
2.37496920
2.25769506
2.13640801
2.01299087
1.88936091
1.76743994
1.64912432
1.53625526
1.43059005
1.33377457
1.24731755
1.17256689
1.11068863
1.06264861
1.02919737
1.01085829
1.00791938
1.02042857
1.04819282
1.09078079
1.14752912
1.21755224
1.29975539
1.39285100
1.49537855
1.60572814
1.72216811
2.90226759
2.94707402
2.97724768
2.99232371
2.99206803
2.97648127
2.94579926
2.90049010
2.84124775
2.76898203
2.68480521
2.59001528
2.48607621
2.37459544
2.25729908
2.13600514
2.01259521
1.88898522
1.76709547
1.64882069
1.53600038
1.43039010
1.33363394
1.24723882
1.17255092
1.11073453
1.06275381
1.02935770
1.01106808
1.00817153
1.02071474
1.04850362
1.09110612
1.14785870
1.21787632
1.30006590
1.39314292
1.49565119
1.60598562
1.72241800
1.84312525
2.94898462
2.97877843
2.99354310
2.99302638
2.97721646
2.94634107
2.90086320
2.84147375
2.76908073
2.68479528
2.58991465
2.48590215
2.37436457
2.25702726
2.13570734
2.01228540
1.88867621
1.76679880
1.64854652
1.53575745
1.43018561
1.33347355
1.24712665
1.17248950
1.11072487
1.06279542
1.02944866
1.01120510
1.00835006
1.02092913
1.04874726
1.09137167
1.14813845
1.21816262
1.30035178
1.39342282
1.49592172
1.60624618
1.72267071
1.84337405
1.96646826
2.98089306
2.99524636
2.99439158
2.97829972
2.94718600
2.90150461
2.84194031
2.76939691
2.68498274
2.58999302
2.48588961
2.37427810
2.25688282
2.13551989
2.01206887
1.88844347
1.76656158
1.64831536
1.53554160
1.42999304
1.33331086
1.24699907
1.17240089
1.11067772
1.06279088
1.02948659
1.01128413
1.00846770
1.02108182
1.04893056
1.09158043
1.14836702
1.21840516
1.30060263
1.39367693
1.49617517
1.60649658
1.72291750
1.84361834
1.96671224
2.09027494
2.99749499
2.99621314
2.97976885
2.94836136
2.90243279
2.84265895
2.76993708
2.68537073
2.59025165
2.48603911
2.37433677
2.25686737
2.13544571
2.01195016
1.88829329
1.76639188
1.64813696
1.53536417
1.42982507
1.33315964
1.24687068
1.17230018
1.11060831
1.06275523
1.02948596
1.01131869
1.00853655
1.02118312
1.04906161
1.09173782
1.14854678
1.21860301
1.30081416
1.39389797
1.49640207
1.60672655
1.72314885
1.84385061
1.96694612
2.09051188
2.21261683
2.99853134
2.98165695
2.94989292
2.90366668
2.84364267
2.77070944
2.68596389
2.59069275
2.48635150
2.37454090
2.25698141
2.13548602
2.01193158
1.88822931
1.76629480
1.64801791
1.53523317
1.42969103
1.33303037
1.24675289
1.17219947
1.11052920
1.06270113
1.02945926
1.01132074
1.00856776
1.02124300
1.04914886
1.09185044
1.14868219
1.21875822
1.30098595
1.39408307
1.49659741
1.60692951
1.72335746
1.84406372
1.96716348
2.09073407
2.21284506
2.33158844
2.98398595
2.95179907
2.90522074
2.84490206
2.77172104
2.68676633
2.59131822
2.48682719
2.37489009
2.25722436
2.13564055
2.01201355
1.88825295
1.76627291
1.64796205
1.53515373
1.42959730
1.33293059
1.24665424
1.17210813
1.11045033
1.06263893
1.02941695
1.01130063
1.00857126
1.02127070
1.04920057
1.09192531
1.14877879
1.21887464
1.30111996
1.39423227
1.49675941
1.60710209
1.72353877
1.84425242
1.96735887
2.09093614
2.21305446
2.33180639
2.44533666
2.95408578
2.90710033
2.84644120
2.77297443
2.68777905
2.59212773
2.48746485
2.37538243
2.25759411
2.13590737
2.01219466
1.88836357
1.76632657
1.64797083
1.53512846
1.42954765
1.33286516
1.24658062
1.17203294
1.11037925
1.06257672
1.02936750
1.01126695
1.00855556
1.02127441
1.04922440
1.09196932
1.14884246
1.21895698
1.30121959
1.39434756
1.49688860
1.60724345
1.72369072
1.84441370
1.96752863
2.09111406
2.21324077
2.33200190
2.44554269
2.55208943
2.90929743
2.84825383
2.77446426
2.68899711
2.59311643
2.48825964
2.37601316
2.25808610
2.13628233
2.01247136
1.88855837
1.76645388
1.64804339
1.53515758
1.42954341
1.33283651
1.24653550
1.17197831
1.11032119
1.06252044
1.02931735
1.01122652
1.00852765
1.02126110
1.04922711
1.09198883
1.14887899
1.21901025
1.30128895
1.39443202
1.49698699
1.60735449
1.72381317
1.84454649
1.96767093
2.09126540
2.21340115
2.33217178
2.44572306
2.55228175
2.65018335
2.85031979
2.77617405
2.69040672
2.59427250
2.48920122
2.37677309
2.25869216
2.13675820
2.01283734
1.88883204
1.76665055
1.64817650
1.53523898
1.42958358
1.33284475
1.24652003
1.17194641
1.11027922
1.06247392
1.02927102
1.01118436
1.00849293
1.02123640
1.04921437
1.09198938
1.14889365
1.21903933
1.30133235
1.39448931
1.49705746
1.60743730
1.72390742
1.84465128
1.96778555
2.09138937
2.21353428
2.33231432
2.44587566
2.55244557
2.65036001
2.73808960
2.77807320
2.69198252
2.59557474
2.49027165
2.37764688
2.25939907
2.13732352
2.01328273
1.88917613
1.76690948
1.64836434
1.53536807
1.42966478
1.33288766
1.24653313
1.17193718
1.11025425
1.06243898
1.02923110
1.01114373
1.00845518
1.02120447
1.04919060
1.09197554
1.14889098
1.21904861
1.30135392
1.39452317
1.49710333
1.60749466
1.72397564
1.84472971
1.96787356
2.09148648
2.21364025
2.33242919
2.44599984
2.55257989
2.65050574
2.73824851
2.81443779
2.69368503
2.59699022
2.49144333
2.37861126
2.26018707
2.13796147
2.01379312
1.88957831
1.76722017
1.64859808
1.53553755
1.42978112
1.33296066
1.24657144
1.17194843
1.11024516
1.06241545
1.02919829
1.01110610
1.00841652
1.02116799
1.04915890
1.09195071
1.14887458
1.21904176
1.30135732
1.39453714
1.49712789
1.60752959
1.72402055
1.84478409
1.96793690
2.09155832
2.21372028
2.33251729
2.44609621
2.55268506
2.65062064
2.73837451
2.81457675
2.87803734
2.59847214
2.49267709
2.37963332
2.26102841
2.13864852
2.01434853
1.89002157
1.76756814
1.64886540
1.53573700
1.42992390
1.33305661
1.24662923
1.17197571
1.11024869
1.06240117
1.02917142
1.01107116
1.00837744
1.02112809
1.04912099
1.09191705
1.14884698
1.21902157
1.30134547
1.39453422
1.49713416
1.60754504
1.72404496
1.84481709
1.96797804
2.09160716
2.21377641
2.33258049
2.44616645
2.55276258
2.65070605
2.73846879
2.81468133
2.87815412
2.92789610
2.49392030
2.38066887
2.26188591
2.13935331
2.01492240
1.89048335
1.76793418
1.64914994
1.53595251
1.43008132
1.33316558
1.24669824
1.17201228
1.11025944
1.06239196
1.02914739
1.01103683
1.00833673
1.02108437
1.04907712
1.09187542
1.14880950
1.21898976
1.30132044
1.39451672
1.49712461
1.60754360
1.72405152
1.84483138
1.96799965
2.09163562
2.21381126
2.33262133
2.44621304
2.55281490
2.65076434
2.73853366
2.81475377
2.87823557
2.92798846
2.96323581
2.38166099
2.26271170
2.14003549
2.01548065
1.89093479
1.76829376
1.64943081
1.53616625
1.43023818
1.33327463
1.24676752
1.17204891
1.11026975
1.06238155
1.02912120
1.01099921
1.00829150
1.02103482
1.04902609
1.09182529
1.14876225
1.21894695
1.30128328
1.39448607
1.49710099
1.60752726
1.72404244
1.84482934
1.96800427
2.09164638
2.21382761
2.33264273
2.44623900
2.55284510
2.65079870
2.73857235
2.81479735
2.87828497
2.92804510
2.96330157
2.98350429
2.26344599
2.14064477
2.01598087
1.89134000
1.76861644
1.64968208
1.53635610
1.43037555
1.33336755
1.24682320
1.17207380
1.11026962
1.06236153
1.02908586
1.01095259
1.00823715
1.02097587
1.04896521
1.09176478
1.14870403
1.21889257
1.30123397
1.39444270
1.49706416
1.60749725
1.72401930
1.84481287
1.96799407
2.09164190
2.21382819
2.33264765
2.44624756
2.55285669
2.65081284
2.73858880
2.81481616
2.87830659
2.92807037
2.96333181
2.98354135
2.98838405
2.14112001
2.01637162
1.89165561
1.76886550
1.64987256
1.53649541
1.43047061
1.33342475
1.24684843
1.17207247
1.11024661
1.06232128
1.02903236
1.01088938
1.00816739
1.02090233
1.04889031
1.09169061
1.14863235
1.21882484
1.30117132
1.39438601
1.49701400
1.60745393
1.72398287
1.84478313
1.96797061
2.09162411
2.21381533
2.33263884
2.44624189
2.55285322
2.65081073
2.73858736
2.81481492
2.87830540
2.92806948
2.96333194
2.98354371
2.98839041
2.97779724
2.01659189
1.89183036
1.76899772
1.64996561
1.53655296
1.43049658
1.33342316
1.24682330
1.17202767
1.11018584
1.06224797
1.02894964
1.01080013
1.00807416
1.02080742
1.04879573
1.09159811
1.14854343
1.21874074
1.30109305
1.39431432
1.49694940
1.60739669
1.72393301
1.84474045
1.96793467
2.09159428
2.21379075
2.33261853
2.44622472
2.55283800
2.65079625
2.73857247
2.81479861
2.87828691
2.92804838
2.96330822
2.98351788
2.98836354
2.97777101
2.95190681
1.89180487
1.76896335
1.64991931
1.53649316
1.43042300
1.33333652
1.24672501
1.17191959
1.11007002
1.06212652
1.02882464
1.01067351
1.00794772
1.02068277
1.04867433
1.09148124
1.14843219
1.21863607
1.30099570
1.39422485
1.49686820
1.60732392
1.72386865
1.84468425
1.96788617
2.09155279
2.21375539
2.33258820
2.44619816
2.55281378
2.65077284
2.73854831
2.81477217
2.87825678
2.92801339
2.96326757
2.98347123
2.98831113
2.97771373
2.95184624
2.91111399
1.76870619
1.64968680
1.53627658
1.43021627
1.33313584
1.24652833
1.17172608
1.10987968
1.06193984
1.02864232
1.01049638
1.00777661
1.02051847
1.04851756
1.09133266
1.14829237
1.21850549
1.30087475
1.39411382
1.49676724
1.60723306
1.72378774
1.84461298
1.96782404
2.09149910
2.21370921
2.33254839
2.44616335
2.55278241
2.65074316
2.73851841
2.81474005
2.87822044
2.92797091
2.96321726
2.98341178
2.98824176
2.97763434
2.95175751
2.91101742
2.85605195
1.64921677
1.53586077
1.42984070
1.33279049
1.24620646
1.17142343
1.10959371
1.06166907
1.02838594
1.01025393
1.00754779
1.02030308
1.04831546
1.09114372
1.14811648
1.21834255
1.30072466
1.39397646
1.49664245
1.60712062
1.72368735
1.84452421
1.96774632
2.09143169
2.21365118
2.33249860
2.44612041
2.55274469
2.65070877
2.73848524
2.81470576
2.87818253
2.92792681
2.96316442
2.98334783
2.98816475
2.97754288
2.95165104
2.91089635
2.85591773
2.78757578
1.53520121
1.42925996
1.33226983
1.24573265
1.17098763
1.10919024
1.06129428
1.02803740
1.00992984
1.00724672
1.02002376
1.04805674
1.09090455
1.14789593
1.21813979
1.30053894
1.39380713
1.49648892
1.60698233
1.72356372
1.84441466
1.96765017
2.09134816
2.21357933
2.33243730
2.44606831
2.55270019
2.65066998
2.73844995
2.81467149
2.87814645
2.92788586
2.96311534
2.98328729
2.98808953
2.97745015
2.95153861
2.91076303
2.85576356
2.78740221
2.70674906
1.42843868
1.33154573
1.24508284
1.17039672
1.10864846
1.06079562
1.02757793
1.00950671
1.00685752
1.01966625
1.04772878
1.09060410
1.14762107
1.21788878
1.30031026
1.39359942
1.49630101
1.60681319
1.72341244
1.84428037
1.96753204
2.09124531
2.21349080
2.33236199
2.44600495
2.55264726
2.65062569
2.73841219
2.81463776
2.87811388
2.92785113
2.96307474
2.98323677
2.98802481
2.97736692
2.95143287
2.91063147
2.85560407
2.78721431
2.70653422
2.61482699
1.33059517
1.24423972
1.16963486
1.10795193
1.06015555
1.02698945
1.00896667
1.00636324
1.01921499
1.04731762
1.09023002
1.14728112
1.21758019
1.30003049
1.39334624
1.49607249
1.60660769
1.72322855
1.84411686
1.96738781
2.09111932
2.21338204
2.33226938
2.44592729
2.55258317
2.65057356
2.73837009
2.81460339
2.87808450
2.92782350
2.96304506
2.98320067
2.98797732
2.97730261
2.95134605
2.91051655
2.85545616
2.78702991
2.70631203
2.61456849
2.51323642
1.24319750
1.16869925
1.10709488
1.05936343
1.02625716
1.00829258
1.00574616
1.01865297
1.04680770
1.08976854
1.14686411
1.21720367
1.29969074
1.39303993
1.49579670
1.60635994
1.72300676
1.84391930
1.96721299
2.09096598
2.21324902
2.33215557
2.44583155
2.55250429
2.65051012
2.73832045
2.81456556
2.87805607
2.92780156
2.96302608
2.98318039
2.98795069
2.97726371
2.95128810
2.91043212
2.85533754
2.78686988
2.70610492
2.61431157
2.51293108
2.40355304
1.16760949
1.10609440
1.05842528
1.02537541
1.00747057
1.00498835
1.01796133
1.04618119
1.08920378
1.14635634
1.21674764
1.29928128
1.39267225
1.49546661
1.60606385
1.72274168
1.84368278
1.96700303
2.09078092
2.21308749
2.33201636
2.44571356
2.55240640
2.65043115
2.73825903
2.81452010
2.87802463
2.92778174
2.96301488
2.98317412
2.98794475
2.97725243
2.95126461
2.91038816
2.85526356
2.78675534
2.70593920
2.61408549
2.51263924
2.40319629
2.28747575
1.10501064
1.05738620
1.02436260
1.00649678
1.00407299
1.01711832
1.04541627
1.08851617
1.14574131
1.21619859
1.29879113
1.39223430
1.49507489
1.60571325
1.72242798
1.84340253
1.96675349
2.09055992
2.21289328
2.33184755
2.44556899
2.55228502
2.65033196
2.73818098
2.81446197
2.87798498
2.92775875
2.96300630
2.98317705
2.98795549
2.97726625
2.95127543
2.91038827
2.85524324
2.78670263
2.70583993
2.61392408
2.51240071
2.40287008
2.28706078
2.16679838
1.05637781
1.02330318
1.00539788
1.00298913
1.01609662
1.04448263
1.08767861
1.14499696
1.21553937
1.29820728
1.39171620
1.49461392
1.60530212
1.72206068
1.84307425
1.96646045
2.09029919
2.21266262
2.33164525
2.44539373
2.55213577
2.65020784
2.73808119
2.81438567
2.87793119
2.92772629
2.96299363
2.98318219
2.98797583
2.97729835
2.95131470
2.91042861
2.85527649
2.78671788
2.70582281
2.61385609
2.51225939
2.40263094
2.28670295
2.16631480
2.04337817
1.02246988
1.00430850
1.00175301
1.01485802
1.04332981
1.08664641
1.14408906
1.21474548
1.29751271
1.39110625
1.49407563
1.60482471
1.72163550
1.84269451
1.96612090
2.08999585
2.21239254
2.33140626
2.44518427
2.55195472
2.65005441
2.73795475
2.81428570
2.87785716
2.92767757
2.96296941
2.98318133
2.98799681
2.97733905
2.95137223
2.91049896
2.85535405
2.78679477
2.70588776
2.61389301
2.51224546
2.40253493
2.28648543
2.16593445
2.04281044
1.91909920
1.00381599
1.00053194
1.01334780
1.04185219
1.08532874
1.14295407
1.21377625
1.29668251
1.39038958
1.49345126
1.60427590
1.72114936
1.84226128
1.96573327
2.08964842
2.21208136
2.33112855
2.44493809
2.55173881
2.64986797
2.73779732
2.81415703
2.87775710
2.92760599
2.96292609
2.98316593
2.98800872
2.97737737
2.95143557
2.91058529
2.85546041
2.78691680
2.70601891
2.61402321
2.51235884
2.40260622
2.28647466
2.16578126
2.04243463
1.91842684
1.79582383
1.00070721
1.01157799
1.03976038
1.08348983
1.14144895
1.21255355
1.29567627
1.38954627
1.49273172
1.60365218
1.72060154
1.84177507
1.96529842
2.08925758
2.21172935
2.33081178
2.44465417
2.55148626
2.64964596
2.73760552
2.81399543
2.87762590
2.92750549
2.96285664
2.98312782
2.98800215
2.97740235
2.95149193
2.91067255
2.85557771
2.78706270
2.70619108
2.61421780
2.51256925
2.40282053
2.28667057
2.16591603
2.04242699
1.91813240
1.79503676
1.67530664
1.01319206
1.03588188
1.08026385
1.13917047
1.21090889
1.29442734
1.38855250
1.49191116
1.60295512
1.71999638
1.84124093
1.96482114
2.08882744
2.21133969
2.33045813
2.44433365
2.55119714
2.64938742
2.73737734
2.81379785
2.87745948
2.92737097
2.96275487
2.98305967
2.98796848
2.97740394
2.95152948
2.91074668
2.85568895
2.78721150
2.70637785
2.61444286
2.51283268
2.40312170
2.28700665
2.16627785
2.04278746
1.91841463
1.79503220
1.67450944
1.55896769
1.04107573
1.06831925
1.13452694
1.20849257
1.29286985
1.38740963
1.49100594
1.60220280
1.71935031
1.84067292
1.96431313
2.08836752
2.21091993
2.33007333
2.44398060
2.55087403
2.64909347
2.73711257
2.81356282
2.87725514
2.92719854
2.96261572
2.98295524
2.98790022
2.97737330
2.95153786
2.91079545
2.85577950
2.78734535
2.70655675
2.61466905
2.51310924
2.40345310
2.28739964
2.16674274
2.04333972
1.91907471
1.79581012
1.67530058
1.55896618
1.44707014
